# LAMMPS data file written by OVITO Basic 3.8.0

72 atoms
2 atom types

0.0 9.9 xlo xhi
0.0 19.8 ylo yhi
0.0 6.6 zlo zhi

Masses

1 1.  # A
2 1.  # B

Atoms  # atomic

1 1 6.600000033 16.499999934 6.6
2 1 8.249999967 18.150000066 1.65
3 1 6.600000033 13.200000066 6.6
4 1 8.249999967 8.250000066 1.65
5 1 6.600000033 3.300000066 6.6
6 1 3.299999967 16.499999934 6.6
7 1 4.95 18.150000066 1.65
8 1 4.95 14.85 1.65
9 1 6.600000033 16.499999934 3.3
10 1 8.249999967 18.150000066 4.95
11 1 3.299999967 9.9 6.6
12 1 8.249999967 14.85 4.95
13 1 3.299999967 6.599999934 6.6
14 1 3.299999967 3.300000066 6.6
15 1 4.95 4.95 1.65
16 1 6.600000033 6.599999934 3.3
17 1 8.249999967 8.250000066 4.95
18 1 4.95 1.649999934 1.65
19 1 6.600000033 19.8 3.3
20 1 1.650000033 18.150000066 1.65
21 1 9.9 13.200000066 6.6
22 1 3.299999967 16.499999934 3.3
23 1 4.95 18.150000066 4.95
24 1 1.650000033 11.549999934 1.65
25 1 3.299999967 9.9 3.3
26 1 9.9 3.300000066 6.6
27 1 3.299999967 6.599999934 3.3
28 1 4.95 8.250000066 4.95
29 1 9.9 16.499999934 3.3
30 1 1.650000033 18.150000066 4.95
31 1 9.9 13.200000066 3.3
32 1 1.650000033 14.85 4.95
33 1 9.9 6.599999934 3.3
34 1 9.9 3.300000066 3.3
35 1 9.9 19.8 3.3
36 1 1.650000033 1.649999934 4.95
37 2 8.249999967 14.85 1.65
38 2 6.600000033 9.9 6.6
39 2 8.249999967 11.549999934 1.65
40 2 6.600000033 6.599999934 6.6
41 2 8.249999967 4.95 1.65
42 2 6.600000033 19.8 6.6
43 2 8.249999967 1.649999934 1.65
44 2 3.299999967 13.200000066 6.6
45 2 4.95 11.549999934 1.65
46 2 6.600000033 13.200000066 3.3
47 2 4.95 8.250000066 1.65
48 2 6.600000033 9.9 3.3
49 2 8.249999967 11.549999934 4.95
50 2 3.299999967 19.8 6.6
51 2 6.600000033 3.300000066 3.3
52 2 8.249999967 4.95 4.95
53 2 8.249999967 1.649999934 4.95
54 2 9.9 16.499999934 6.6
55 2 1.650000033 14.85 1.65
56 2 9.9 9.9 6.6
57 2 3.299999967 13.200000066 3.3
58 2 4.95 14.85 4.95
59 2 9.9 6.599999934 6.6
60 2 1.650000033 8.250000066 1.65
61 2 4.95 11.549999934 4.95
62 2 1.650000033 4.95 1.65
63 2 9.9 19.8 6.6
64 2 1.650000033 1.649999934 1.65
65 2 3.299999967 3.300000066 3.3
66 2 4.95 4.95 4.95
67 2 3.299999967 19.8 3.3
68 2 4.95 1.649999934 4.95
69 2 9.9 9.9 3.3
70 2 1.650000033 11.549999934 4.95
71 2 1.650000033 8.250000066 4.95
72 2 1.650000033 4.95 4.95
