# LAMMPS data file written by OVITO Basic 3.8.0

72 atoms
2 atom types

0.0 9.9 xlo xhi
0.0 19.8 ylo yhi
0.0 6.6 zlo zhi

Masses

1 1.  # A
2 1.  # B

Atoms  # atomic

1 1 6.600000033 16.499999934 6.6
2 1 6.600000033 13.200000066 6.6
3 1 6.600000033 6.599999934 6.6
4 1 6.600000033 3.300000066 6.6
5 1 8.249999967 4.95 1.65
6 1 6.600000033 19.8 6.6
7 1 3.299999967 16.499999934 6.6
8 1 4.95 18.150000066 1.65
9 1 3.299999967 13.200000066 6.6
10 1 4.95 14.85 1.65
11 1 6.600000033 16.499999934 3.3
12 1 8.249999967 18.150000066 4.95
13 1 4.95 11.549999934 1.65
14 1 6.600000033 13.200000066 3.3
15 1 3.299999967 6.599999934 6.6
16 1 4.95 8.250000066 1.65
17 1 3.299999967 19.8 6.6
18 1 6.600000033 19.8 3.3
19 1 9.9 16.499999934 6.6
20 1 1.650000033 18.150000066 1.65
21 1 9.9 13.200000066 6.6
22 1 3.299999967 13.200000066 3.3
23 1 4.95 14.85 4.95
24 1 9.9 6.599999934 6.6
25 1 3.299999967 6.599999934 3.3
26 1 4.95 8.250000066 4.95
27 1 9.9 19.8 6.6
28 1 1.650000033 1.649999934 1.65
29 1 3.299999967 3.300000066 3.3
30 1 4.95 4.95 4.95
31 1 3.299999967 19.8 3.3
32 1 4.95 1.649999934 4.95
33 1 9.9 16.499999934 3.3
34 1 1.650000033 14.85 4.95
35 1 9.9 9.9 3.3
36 1 1.650000033 4.95 4.95
37 2 8.249999967 18.150000066 1.65
38 2 8.249999967 14.85 1.65
39 2 6.600000033 9.9 6.6
40 2 8.249999967 11.549999934 1.65
41 2 8.249999967 8.250000066 1.65
42 2 8.249999967 1.649999934 1.65
43 2 3.299999967 9.9 6.6
44 2 8.249999967 14.85 4.95
45 2 6.600000033 9.9 3.3
46 2 8.249999967 11.549999934 4.95
47 2 3.299999967 3.300000066 6.6
48 2 4.95 4.95 1.65
49 2 6.600000033 6.599999934 3.3
50 2 8.249999967 8.250000066 4.95
51 2 4.95 1.649999934 1.65
52 2 6.600000033 3.300000066 3.3
53 2 8.249999967 4.95 4.95
54 2 8.249999967 1.649999934 4.95
55 2 1.650000033 14.85 1.65
56 2 3.299999967 16.499999934 3.3
57 2 4.95 18.150000066 4.95
58 2 9.9 9.9 6.6
59 2 1.650000033 11.549999934 1.65
60 2 1.650000033 8.250000066 1.65
61 2 3.299999967 9.9 3.3
62 2 4.95 11.549999934 4.95
63 2 9.9 3.300000066 6.6
64 2 1.650000033 4.95 1.65
65 2 1.650000033 18.150000066 4.95
66 2 9.9 13.200000066 3.3
67 2 1.650000033 11.549999934 4.95
68 2 9.9 6.599999934 3.3
69 2 1.650000033 8.250000066 4.95
70 2 9.9 3.300000066 3.3
71 2 9.9 19.8 3.3
72 2 1.650000033 1.649999934 4.95
